[Molden Format]
[Title]
Truncated invalid molden
[Atoms] AU
