[Molden Format]
[Title]
H2 STO-3G minimal molden

[Atoms] AU
H     1    1       0.000000       0.000000       0.000000
H     2    1       0.000000       0.000000       1.398397

[GTO]
  1 0
s    3  1.00
      3.4252509       0.1543290
      0.6235305       0.5353281
      0.1688540       0.4446345

  2 0
s    3  1.00
      3.4252509       0.1543290
      0.6235305       0.5353281
      0.1688540       0.4446345

[MO]
Sym=     1a
Ene=    -0.5786
Spin= Alpha
Occup= 2.000000
  1  0.548994
  2  0.548994
Sym=     2a
Ene=     0.6710
Spin= Alpha
Occup= 0.000000
  1  1.211589
  2 -1.211589
