[Molden Format]
[Title]
H2O STO-3G minimal molden

[Atoms] AU
O     1    8       0.000000       0.000000       0.221735
H     2    1       0.000000       1.430815      -0.886942
H     3    1       0.000000      -1.430815      -0.886942

[GTO]
  1 0
s    3  1.00
    130.7093200       0.1543290
     23.8088610       0.5353281
      6.4436083       0.4446345
s    3  1.00
      5.0331513      -0.0999672
      1.1695961       0.3995128
      0.3803890       0.7001155
p    3  1.00
      5.0331513       0.1559163
      1.1695961       0.6076837
      0.3803890       0.3919574

  2 0
s    3  1.00
      3.4252509       0.1543290
      0.6235305       0.5353281
      0.1688540       0.4446345

  3 0
s    3  1.00
      3.4252509       0.1543290
      0.6235305       0.5353281
      0.1688540       0.4446345

[MO]
Sym=     1a
Ene=   -20.2519
Spin= Alpha
Occup= 2.000000
  1  0.994216
  2 -0.023392
  3  0.000000
  4  0.000000
  5  0.000000
  6  0.005889
  7  0.005889
Sym=     2a
Ene=    -1.2577
Spin= Alpha
Occup= 2.000000
  1 -0.233467
  2  0.844449
  3  0.000000
  4  0.000000
  5  0.122829
  6  0.155593
  7  0.155593
Sym=     3a
Ene=    -0.5939
Spin= Alpha
Occup= 2.000000
  1  0.000000
  2  0.000000
  3  0.612692
  4  0.000000
  5  0.000000
  6  0.449222
  7 -0.449222
Sym=     4a
Ene=    -0.4597
Spin= Alpha
Occup= 2.000000
  1 -0.104028
  2  0.538139
  3  0.000000
  4  0.000000
  5 -0.774599
  6  0.284161
  7  0.284161
Sym=     5a
Ene=    -0.3926
Spin= Alpha
Occup= 2.000000
  1  0.000000
  2  0.000000
  3  0.000000
  4  1.000000
  5  0.000000
  6  0.000000
  7  0.000000
Sym=     6a
Ene=     0.5818
Spin= Alpha
Occup= 0.000000
  1 -0.135546
  2  0.820120
  3  0.000000
  4  0.000000
  5  0.763838
  6 -0.769422
  7 -0.769422
Sym=     7a
Ene=     0.6928
Spin= Alpha
Occup= 0.000000
  1  0.000000
  2  0.000000
  3  0.959800
  4  0.000000
  5  0.000000
  6 -0.815630
  7  0.815630
